DHCP supercell generated: a=3.54 c=5.75 nx=10 ny=10 repeats=5
2000 atoms

3 atom types

-0.500000 51.240000 xlo xhi
-0.500000 30.135389 ylo yhi
-0.500000 27.812500 zlo zhi

Masses

1 58.933
2 51.996
3 55.845

Atoms # atomic

1 3 0.00000000 0.00000000 0.00000000
2 3 1.77000000 3.06572993 0.00000000
3 3 3.54000000 6.13145986 0.00000000
4 2 5.31000000 9.19718979 0.00000000
5 3 7.08000000 12.26291972 0.00000000
6 3 8.85000000 15.32864965 0.00000000
7 3 10.62000000 18.39437958 0.00000000
8 3 12.39000000 21.46010951 0.00000000
9 3 14.16000000 24.52583944 0.00000000
10 2 15.93000000 27.59156936 0.00000000
11 2 3.54000000 0.00000000 0.00000000
12 3 5.31000000 3.06572993 0.00000000
13 1 7.08000000 6.13145986 0.00000000
14 2 8.85000000 9.19718979 0.00000000
15 3 10.62000000 12.26291972 0.00000000
16 2 12.39000000 15.32864965 0.00000000
17 1 14.16000000 18.39437958 0.00000000
18 1 15.93000000 21.46010951 0.00000000
19 3 17.70000000 24.52583944 0.00000000
20 3 19.47000000 27.59156936 0.00000000
21 3 7.08000000 0.00000000 0.00000000
22 2 8.85000000 3.06572993 0.00000000
23 2 10.62000000 6.13145986 0.00000000
24 1 12.39000000 9.19718979 0.00000000
25 2 14.16000000 12.26291972 0.00000000
26 2 15.93000000 15.32864965 0.00000000
27 1 17.70000000 18.39437958 0.00000000
28 1 19.47000000 21.46010951 0.00000000
29 2 21.24000000 24.52583944 0.00000000
30 1 23.01000000 27.59156936 0.00000000
31 3 10.62000000 0.00000000 0.00000000
32 2 12.39000000 3.06572993 0.00000000
33 3 14.16000000 6.13145986 0.00000000
34 1 15.93000000 9.19718979 0.00000000
35 2 17.70000000 12.26291972 0.00000000
36 3 19.47000000 15.32864965 0.00000000
37 2 21.24000000 18.39437958 0.00000000
38 3 23.01000000 21.46010951 0.00000000
39 2 24.78000000 24.52583944 0.00000000
40 3 26.55000000 27.59156936 0.00000000
41 1 14.16000000 0.00000000 0.00000000
42 3 15.93000000 3.06572993 0.00000000
43 3 17.70000000 6.13145986 0.00000000
44 2 19.47000000 9.19718979 0.00000000
45 3 21.24000000 12.26291972 0.00000000
46 1 23.01000000 15.32864965 0.00000000
47 3 24.78000000 18.39437958 0.00000000
48 1 26.55000000 21.46010951 0.00000000
49 1 28.32000000 24.52583944 0.00000000
50 2 30.09000000 27.59156936 0.00000000
51 1 17.70000000 0.00000000 0.00000000
52 2 19.47000000 3.06572993 0.00000000
53 3 21.24000000 6.13145986 0.00000000
54 3 23.01000000 9.19718979 0.00000000
55 2 24.78000000 12.26291972 0.00000000
56 1 26.55000000 15.32864965 0.00000000
57 3 28.32000000 18.39437958 0.00000000
58 1 30.09000000 21.46010951 0.00000000
59 1 31.86000000 24.52583944 0.00000000
60 1 33.63000000 27.59156936 0.00000000
61 3 21.24000000 0.00000000 0.00000000
62 3 23.01000000 3.06572993 0.00000000
63 2 24.78000000 6.13145986 0.00000000
64 3 26.55000000 9.19718979 0.00000000
65 3 28.32000000 12.26291972 0.00000000
66 2 30.09000000 15.32864965 0.00000000
67 1 31.86000000 18.39437958 0.00000000
68 2 33.63000000 21.46010951 0.00000000
69 1 35.40000000 24.52583944 0.00000000
70 2 37.17000000 27.59156936 0.00000000
71 1 24.78000000 0.00000000 0.00000000
72 1 26.55000000 3.06572993 0.00000000
73 1 28.32000000 6.13145986 0.00000000
74 3 30.09000000 9.19718979 0.00000000
75 2 31.86000000 12.26291972 0.00000000
76 2 33.63000000 15.32864965 0.00000000
77 2 35.40000000 18.39437958 0.00000000
78 2 37.17000000 21.46010951 0.00000000
79 2 38.94000000 24.52583944 0.00000000
80 3 40.71000000 27.59156936 0.00000000
81 3 28.32000000 0.00000000 0.00000000
82 3 30.09000000 3.06572993 0.00000000
83 1 31.86000000 6.13145986 0.00000000
84 3 33.63000000 9.19718979 0.00000000
85 2 35.40000000 12.26291972 0.00000000
86 1 37.17000000 15.32864965 0.00000000
87 3 38.94000000 18.39437958 0.00000000
88 2 40.71000000 21.46010951 0.00000000
89 1 42.48000000 24.52583944 0.00000000
90 2 44.25000000 27.59156936 0.00000000
91 3 31.86000000 0.00000000 0.00000000
92 2 33.63000000 3.06572993 0.00000000
93 2 35.40000000 6.13145986 0.00000000
94 1 37.17000000 9.19718979 0.00000000
95 2 38.94000000 12.26291972 0.00000000
96 1 40.71000000 15.32864965 0.00000000
97 2 42.48000000 18.39437958 0.00000000
98 1 44.25000000 21.46010951 0.00000000
99 1 46.02000000 24.52583944 0.00000000
100 2 47.79000000 27.59156936 0.00000000
101 3 2.95000000 1.02190998 1.43750000
102 3 4.72000000 4.08763991 1.43750000
103 1 6.49000000 7.15336984 1.43750000
104 2 8.26000000 10.21909976 1.43750000
105 1 10.03000000 13.28482969 1.43750000
106 2 11.80000000 16.35055962 1.43750000
107 1 13.57000000 19.41628955 1.43750000
108 3 15.34000000 22.48201948 1.43750000
109 3 17.11000000 25.54774941 1.43750000
110 3 18.88000000 28.61347934 1.43750000
111 3 6.49000000 1.02190998 1.43750000
112 3 8.26000000 4.08763991 1.43750000
113 1 10.03000000 7.15336984 1.43750000
114 1 11.80000000 10.21909976 1.43750000
115 3 13.57000000 13.28482969 1.43750000
116 3 15.34000000 16.35055962 1.43750000
117 3 17.11000000 19.41628955 1.43750000
118 1 18.88000000 22.48201948 1.43750000
119 1 20.65000000 25.54774941 1.43750000
120 2 22.42000000 28.61347934 1.43750000
121 2 10.03000000 1.02190998 1.43750000
122 1 11.80000000 4.08763991 1.43750000
123 2 13.57000000 7.15336984 1.43750000
124 3 15.34000000 10.21909976 1.43750000
125 3 17.11000000 13.28482969 1.43750000
126 3 18.88000000 16.35055962 1.43750000
127 2 20.65000000 19.41628955 1.43750000
128 3 22.42000000 22.48201948 1.43750000
129 3 24.19000000 25.54774941 1.43750000
130 1 25.96000000 28.61347934 1.43750000
131 1 13.57000000 1.02190998 1.43750000
132 2 15.34000000 4.08763991 1.43750000
133 1 17.11000000 7.15336984 1.43750000
134 2 18.88000000 10.21909976 1.43750000
135 3 20.65000000 13.28482969 1.43750000
136 1 22.42000000 16.35055962 1.43750000
137 3 24.19000000 19.41628955 1.43750000
138 3 25.96000000 22.48201948 1.43750000
139 1 27.73000000 25.54774941 1.43750000
140 2 29.50000000 28.61347934 1.43750000
141 1 17.11000000 1.02190998 1.43750000
142 2 18.88000000 4.08763991 1.43750000
143 1 20.65000000 7.15336984 1.43750000
144 3 22.42000000 10.21909976 1.43750000
145 2 24.19000000 13.28482969 1.43750000
146 3 25.96000000 16.35055962 1.43750000
147 1 27.73000000 19.41628955 1.43750000
148 2 29.50000000 22.48201948 1.43750000
149 1 31.27000000 25.54774941 1.43750000
150 2 33.04000000 28.61347934 1.43750000
151 2 20.65000000 1.02190998 1.43750000
152 2 22.42000000 4.08763991 1.43750000
153 3 24.19000000 7.15336984 1.43750000
154 2 25.96000000 10.21909976 1.43750000
155 3 27.73000000 13.28482969 1.43750000
156 2 29.50000000 16.35055962 1.43750000
157 1 31.27000000 19.41628955 1.43750000
158 1 33.04000000 22.48201948 1.43750000
159 2 34.81000000 25.54774941 1.43750000
160 1 36.58000000 28.61347934 1.43750000
161 1 24.19000000 1.02190998 1.43750000
162 3 25.96000000 4.08763991 1.43750000
163 1 27.73000000 7.15336984 1.43750000
164 2 29.50000000 10.21909976 1.43750000
165 3 31.27000000 13.28482969 1.43750000
166 2 33.04000000 16.35055962 1.43750000
167 3 34.81000000 19.41628955 1.43750000
168 1 36.58000000 22.48201948 1.43750000
169 1 38.35000000 25.54774941 1.43750000
170 2 40.12000000 28.61347934 1.43750000
171 1 27.73000000 1.02190998 1.43750000
172 1 29.50000000 4.08763991 1.43750000
173 3 31.27000000 7.15336984 1.43750000
174 2 33.04000000 10.21909976 1.43750000
175 3 34.81000000 13.28482969 1.43750000
176 3 36.58000000 16.35055962 1.43750000
177 1 38.35000000 19.41628955 1.43750000
178 2 40.12000000 22.48201948 1.43750000
179 2 41.89000000 25.54774941 1.43750000
180 3 43.66000000 28.61347934 1.43750000
181 2 31.27000000 1.02190998 1.43750000
182 3 33.04000000 4.08763991 1.43750000
183 1 34.81000000 7.15336984 1.43750000
184 1 36.58000000 10.21909976 1.43750000
185 1 38.35000000 13.28482969 1.43750000
186 2 40.12000000 16.35055962 1.43750000
187 2 41.89000000 19.41628955 1.43750000
188 2 43.66000000 22.48201948 1.43750000
189 3 45.43000000 25.54774941 1.43750000
190 3 47.20000000 28.61347934 1.43750000
191 1 34.81000000 1.02190998 1.43750000
192 2 36.58000000 4.08763991 1.43750000
193 2 38.35000000 7.15336984 1.43750000
194 2 40.12000000 10.21909976 1.43750000
195 2 41.89000000 13.28482969 1.43750000
196 3 43.66000000 16.35055962 1.43750000
197 3 45.43000000 19.41628955 1.43750000
198 2 47.20000000 22.48201948 1.43750000
199 2 48.97000000 25.54774941 1.43750000
200 2 50.74000000 28.61347934 1.43750000
201 3 0.00000000 0.00000000 2.87500000
202 1 1.77000000 3.06572993 2.87500000
203 1 3.54000000 6.13145986 2.87500000
204 1 5.31000000 9.19718979 2.87500000
205 2 7.08000000 12.26291972 2.87500000
206 1 8.85000000 15.32864965 2.87500000
207 1 10.62000000 18.39437958 2.87500000
208 3 12.39000000 21.46010951 2.87500000
209 2 14.16000000 24.52583944 2.87500000
210 3 15.93000000 27.59156936 2.87500000
211 3 3.54000000 0.00000000 2.87500000
212 2 5.31000000 3.06572993 2.87500000
213 2 7.08000000 6.13145986 2.87500000
214 1 8.85000000 9.19718979 2.87500000
215 3 10.62000000 12.26291972 2.87500000
216 2 12.39000000 15.32864965 2.87500000
217 3 14.16000000 18.39437958 2.87500000
218 1 15.93000000 21.46010951 2.87500000
219 2 17.70000000 24.52583944 2.87500000
220 1 19.47000000 27.59156936 2.87500000
221 3 7.08000000 0.00000000 2.87500000
222 3 8.85000000 3.06572993 2.87500000
223 3 10.62000000 6.13145986 2.87500000
224 3 12.39000000 9.19718979 2.87500000
225 3 14.16000000 12.26291972 2.87500000
226 1 15.93000000 15.32864965 2.87500000
227 1 17.70000000 18.39437958 2.87500000
228 2 19.47000000 21.46010951 2.87500000
229 3 21.24000000 24.52583944 2.87500000
230 3 23.01000000 27.59156936 2.87500000
231 1 10.62000000 0.00000000 2.87500000
232 3 12.39000000 3.06572993 2.87500000
233 2 14.16000000 6.13145986 2.87500000
234 2 15.93000000 9.19718979 2.87500000
235 1 17.70000000 12.26291972 2.87500000
236 3 19.47000000 15.32864965 2.87500000
237 2 21.24000000 18.39437958 2.87500000
238 2 23.01000000 21.46010951 2.87500000
239 3 24.78000000 24.52583944 2.87500000
240 3 26.55000000 27.59156936 2.87500000
241 3 14.16000000 0.00000000 2.87500000
242 1 15.93000000 3.06572993 2.87500000
243 1 17.70000000 6.13145986 2.87500000
244 2 19.47000000 9.19718979 2.87500000
245 3 21.24000000 12.26291972 2.87500000
246 1 23.01000000 15.32864965 2.87500000
247 1 24.78000000 18.39437958 2.87500000
248 2 26.55000000 21.46010951 2.87500000
249 2 28.32000000 24.52583944 2.87500000
250 1 30.09000000 27.59156936 2.87500000
251 1 17.70000000 0.00000000 2.87500000
252 3 19.47000000 3.06572993 2.87500000
253 1 21.24000000 6.13145986 2.87500000
254 2 23.01000000 9.19718979 2.87500000
255 2 24.78000000 12.26291972 2.87500000
256 3 26.55000000 15.32864965 2.87500000
257 3 28.32000000 18.39437958 2.87500000
258 1 30.09000000 21.46010951 2.87500000
259 1 31.86000000 24.52583944 2.87500000
260 1 33.63000000 27.59156936 2.87500000
261 3 21.24000000 0.00000000 2.87500000
262 3 23.01000000 3.06572993 2.87500000
263 1 24.78000000 6.13145986 2.87500000
264 3 26.55000000 9.19718979 2.87500000
265 3 28.32000000 12.26291972 2.87500000
266 1 30.09000000 15.32864965 2.87500000
267 3 31.86000000 18.39437958 2.87500000
268 3 33.63000000 21.46010951 2.87500000
269 1 35.40000000 24.52583944 2.87500000
270 1 37.17000000 27.59156936 2.87500000
271 1 24.78000000 0.00000000 2.87500000
272 3 26.55000000 3.06572993 2.87500000
273 1 28.32000000 6.13145986 2.87500000
274 1 30.09000000 9.19718979 2.87500000
275 2 31.86000000 12.26291972 2.87500000
276 3 33.63000000 15.32864965 2.87500000
277 2 35.40000000 18.39437958 2.87500000
278 1 37.17000000 21.46010951 2.87500000
279 1 38.94000000 24.52583944 2.87500000
280 2 40.71000000 27.59156936 2.87500000
281 3 28.32000000 0.00000000 2.87500000
282 2 30.09000000 3.06572993 2.87500000
283 2 31.86000000 6.13145986 2.87500000
284 1 33.63000000 9.19718979 2.87500000
285 1 35.40000000 12.26291972 2.87500000
286 1 37.17000000 15.32864965 2.87500000
287 2 38.94000000 18.39437958 2.87500000
288 2 40.71000000 21.46010951 2.87500000
289 2 42.48000000 24.52583944 2.87500000
290 2 44.25000000 27.59156936 2.87500000
291 1 31.86000000 0.00000000 2.87500000
292 2 33.63000000 3.06572993 2.87500000
293 3 35.40000000 6.13145986 2.87500000
294 3 37.17000000 9.19718979 2.87500000
295 2 38.94000000 12.26291972 2.87500000
296 2 40.71000000 15.32864965 2.87500000
297 2 42.48000000 18.39437958 2.87500000
298 3 44.25000000 21.46010951 2.87500000
299 3 46.02000000 24.52583944 2.87500000
300 2 47.79000000 27.59156936 2.87500000
301 2 2.36000000 2.04381995 4.31250000
302 1 4.13000000 5.10954988 4.31250000
303 2 5.90000000 8.17527981 4.31250000
304 3 7.67000000 11.24100974 4.31250000
305 3 9.44000000 14.30673967 4.31250000
306 3 11.21000000 17.37246960 4.31250000
307 1 12.98000000 20.43819953 4.31250000
308 2 14.75000000 23.50392946 4.31250000
309 1 16.52000000 26.56965939 4.31250000
310 3 18.29000000 29.63538932 4.31250000
311 3 5.90000000 2.04381995 4.31250000
312 1 7.67000000 5.10954988 4.31250000
313 3 9.44000000 8.17527981 4.31250000
314 1 11.21000000 11.24100974 4.31250000
315 2 12.98000000 14.30673967 4.31250000
316 3 14.75000000 17.37246960 4.31250000
317 3 16.52000000 20.43819953 4.31250000
318 3 18.29000000 23.50392946 4.31250000
319 1 20.06000000 26.56965939 4.31250000
320 1 21.83000000 29.63538932 4.31250000
321 1 9.44000000 2.04381995 4.31250000
322 3 11.21000000 5.10954988 4.31250000
323 1 12.98000000 8.17527981 4.31250000
324 3 14.75000000 11.24100974 4.31250000
325 1 16.52000000 14.30673967 4.31250000
326 1 18.29000000 17.37246960 4.31250000
327 3 20.06000000 20.43819953 4.31250000
328 3 21.83000000 23.50392946 4.31250000
329 3 23.60000000 26.56965939 4.31250000
330 2 25.37000000 29.63538932 4.31250000
331 3 12.98000000 2.04381995 4.31250000
332 2 14.75000000 5.10954988 4.31250000
333 3 16.52000000 8.17527981 4.31250000
334 2 18.29000000 11.24100974 4.31250000
335 2 20.06000000 14.30673967 4.31250000
336 1 21.83000000 17.37246960 4.31250000
337 2 23.60000000 20.43819953 4.31250000
338 2 25.37000000 23.50392946 4.31250000
339 2 27.14000000 26.56965939 4.31250000
340 2 28.91000000 29.63538932 4.31250000
341 1 16.52000000 2.04381995 4.31250000
342 1 18.29000000 5.10954988 4.31250000
343 2 20.06000000 8.17527981 4.31250000
344 3 21.83000000 11.24100974 4.31250000
345 3 23.60000000 14.30673967 4.31250000
346 1 25.37000000 17.37246960 4.31250000
347 1 27.14000000 20.43819953 4.31250000
348 3 28.91000000 23.50392946 4.31250000
349 3 30.68000000 26.56965939 4.31250000
350 3 32.45000000 29.63538932 4.31250000
351 1 20.06000000 2.04381995 4.31250000
352 3 21.83000000 5.10954988 4.31250000
353 3 23.60000000 8.17527981 4.31250000
354 2 25.37000000 11.24100974 4.31250000
355 2 27.14000000 14.30673967 4.31250000
356 3 28.91000000 17.37246960 4.31250000
357 1 30.68000000 20.43819953 4.31250000
358 1 32.45000000 23.50392946 4.31250000
359 1 34.22000000 26.56965939 4.31250000
360 3 35.99000000 29.63538932 4.31250000
361 2 23.60000000 2.04381995 4.31250000
362 2 25.37000000 5.10954988 4.31250000
363 3 27.14000000 8.17527981 4.31250000
364 1 28.91000000 11.24100974 4.31250000
365 3 30.68000000 14.30673967 4.31250000
366 2 32.45000000 17.37246960 4.31250000
367 1 34.22000000 20.43819953 4.31250000
368 3 35.99000000 23.50392946 4.31250000
369 3 37.76000000 26.56965939 4.31250000
370 1 39.53000000 29.63538932 4.31250000
371 1 27.14000000 2.04381995 4.31250000
372 1 28.91000000 5.10954988 4.31250000
373 3 30.68000000 8.17527981 4.31250000
374 1 32.45000000 11.24100974 4.31250000
375 3 34.22000000 14.30673967 4.31250000
376 1 35.99000000 17.37246960 4.31250000
377 1 37.76000000 20.43819953 4.31250000
378 1 39.53000000 23.50392946 4.31250000
379 1 41.30000000 26.56965939 4.31250000
380 3 43.07000000 29.63538932 4.31250000
381 1 30.68000000 2.04381995 4.31250000
382 3 32.45000000 5.10954988 4.31250000
383 3 34.22000000 8.17527981 4.31250000
384 2 35.99000000 11.24100974 4.31250000
385 1 37.76000000 14.30673967 4.31250000
386 2 39.53000000 17.37246960 4.31250000
387 1 41.30000000 20.43819953 4.31250000
388 2 43.07000000 23.50392946 4.31250000
389 2 44.84000000 26.56965939 4.31250000
390 2 46.61000000 29.63538932 4.31250000
391 3 34.22000000 2.04381995 4.31250000
392 3 35.99000000 5.10954988 4.31250000
393 2 37.76000000 8.17527981 4.31250000
394 2 39.53000000 11.24100974 4.31250000
395 3 41.30000000 14.30673967 4.31250000
396 2 43.07000000 17.37246960 4.31250000
397 2 44.84000000 20.43819953 4.31250000
398 3 46.61000000 23.50392946 4.31250000
399 2 48.38000000 26.56965939 4.31250000
400 1 50.15000000 29.63538932 4.31250000
401 1 0.00000000 0.00000000 5.75000000
402 3 1.77000000 3.06572993 5.75000000
403 1 3.54000000 6.13145986 5.75000000
404 2 5.31000000 9.19718979 5.75000000
405 2 7.08000000 12.26291972 5.75000000
406 2 8.85000000 15.32864965 5.75000000
407 2 10.62000000 18.39437958 5.75000000
408 3 12.39000000 21.46010951 5.75000000
409 2 14.16000000 24.52583944 5.75000000
410 1 15.93000000 27.59156936 5.75000000
411 1 3.54000000 0.00000000 5.75000000
412 2 5.31000000 3.06572993 5.75000000
413 1 7.08000000 6.13145986 5.75000000
414 2 8.85000000 9.19718979 5.75000000
415 3 10.62000000 12.26291972 5.75000000
416 1 12.39000000 15.32864965 5.75000000
417 3 14.16000000 18.39437958 5.75000000
418 3 15.93000000 21.46010951 5.75000000
419 2 17.70000000 24.52583944 5.75000000
420 1 19.47000000 27.59156936 5.75000000
421 1 7.08000000 0.00000000 5.75000000
422 3 8.85000000 3.06572993 5.75000000
423 2 10.62000000 6.13145986 5.75000000
424 2 12.39000000 9.19718979 5.75000000
425 2 14.16000000 12.26291972 5.75000000
426 1 15.93000000 15.32864965 5.75000000
427 1 17.70000000 18.39437958 5.75000000
428 3 19.47000000 21.46010951 5.75000000
429 3 21.24000000 24.52583944 5.75000000
430 3 23.01000000 27.59156936 5.75000000
431 2 10.62000000 0.00000000 5.75000000
432 3 12.39000000 3.06572993 5.75000000
433 2 14.16000000 6.13145986 5.75000000
434 3 15.93000000 9.19718979 5.75000000
435 1 17.70000000 12.26291972 5.75000000
436 2 19.47000000 15.32864965 5.75000000
437 3 21.24000000 18.39437958 5.75000000
438 3 23.01000000 21.46010951 5.75000000
439 3 24.78000000 24.52583944 5.75000000
440 1 26.55000000 27.59156936 5.75000000
441 1 14.16000000 0.00000000 5.75000000
442 1 15.93000000 3.06572993 5.75000000
443 1 17.70000000 6.13145986 5.75000000
444 1 19.47000000 9.19718979 5.75000000
445 3 21.24000000 12.26291972 5.75000000
446 2 23.01000000 15.32864965 5.75000000
447 1 24.78000000 18.39437958 5.75000000
448 1 26.55000000 21.46010951 5.75000000
449 3 28.32000000 24.52583944 5.75000000
450 2 30.09000000 27.59156936 5.75000000
451 1 17.70000000 0.00000000 5.75000000
452 2 19.47000000 3.06572993 5.75000000
453 2 21.24000000 6.13145986 5.75000000
454 1 23.01000000 9.19718979 5.75000000
455 3 24.78000000 12.26291972 5.75000000
456 2 26.55000000 15.32864965 5.75000000
457 1 28.32000000 18.39437958 5.75000000
458 3 30.09000000 21.46010951 5.75000000
459 1 31.86000000 24.52583944 5.75000000
460 3 33.63000000 27.59156936 5.75000000
461 3 21.24000000 0.00000000 5.75000000
462 1 23.01000000 3.06572993 5.75000000
463 2 24.78000000 6.13145986 5.75000000
464 2 26.55000000 9.19718979 5.75000000
465 2 28.32000000 12.26291972 5.75000000
466 2 30.09000000 15.32864965 5.75000000
467 2 31.86000000 18.39437958 5.75000000
468 3 33.63000000 21.46010951 5.75000000
469 1 35.40000000 24.52583944 5.75000000
470 3 37.17000000 27.59156936 5.75000000
471 3 24.78000000 0.00000000 5.75000000
472 1 26.55000000 3.06572993 5.75000000
473 1 28.32000000 6.13145986 5.75000000
474 3 30.09000000 9.19718979 5.75000000
475 3 31.86000000 12.26291972 5.75000000
476 1 33.63000000 15.32864965 5.75000000
477 3 35.40000000 18.39437958 5.75000000
478 1 37.17000000 21.46010951 5.75000000
479 2 38.94000000 24.52583944 5.75000000
480 3 40.71000000 27.59156936 5.75000000
481 1 28.32000000 0.00000000 5.75000000
482 2 30.09000000 3.06572993 5.75000000
483 1 31.86000000 6.13145986 5.75000000
484 1 33.63000000 9.19718979 5.75000000
485 3 35.40000000 12.26291972 5.75000000
486 3 37.17000000 15.32864965 5.75000000
487 1 38.94000000 18.39437958 5.75000000
488 1 40.71000000 21.46010951 5.75000000
489 3 42.48000000 24.52583944 5.75000000
490 1 44.25000000 27.59156936 5.75000000
491 2 31.86000000 0.00000000 5.75000000
492 1 33.63000000 3.06572993 5.75000000
493 2 35.40000000 6.13145986 5.75000000
494 3 37.17000000 9.19718979 5.75000000
495 3 38.94000000 12.26291972 5.75000000
496 1 40.71000000 15.32864965 5.75000000
497 2 42.48000000 18.39437958 5.75000000
498 2 44.25000000 21.46010951 5.75000000
499 2 46.02000000 24.52583944 5.75000000
500 1 47.79000000 27.59156936 5.75000000
501 3 2.95000000 1.02190998 7.18750000
502 3 4.72000000 4.08763991 7.18750000
503 3 6.49000000 7.15336984 7.18750000
504 2 8.26000000 10.21909976 7.18750000
505 2 10.03000000 13.28482969 7.18750000
506 3 11.80000000 16.35055962 7.18750000
507 1 13.57000000 19.41628955 7.18750000
508 1 15.34000000 22.48201948 7.18750000
509 2 17.11000000 25.54774941 7.18750000
510 2 18.88000000 28.61347934 7.18750000
511 2 6.49000000 1.02190998 7.18750000
512 3 8.26000000 4.08763991 7.18750000
513 2 10.03000000 7.15336984 7.18750000
514 1 11.80000000 10.21909976 7.18750000
515 1 13.57000000 13.28482969 7.18750000
516 2 15.34000000 16.35055962 7.18750000
517 2 17.11000000 19.41628955 7.18750000
518 3 18.88000000 22.48201948 7.18750000
519 3 20.65000000 25.54774941 7.18750000
520 1 22.42000000 28.61347934 7.18750000
521 3 10.03000000 1.02190998 7.18750000
522 3 11.80000000 4.08763991 7.18750000
523 2 13.57000000 7.15336984 7.18750000
524 1 15.34000000 10.21909976 7.18750000
525 1 17.11000000 13.28482969 7.18750000
526 2 18.88000000 16.35055962 7.18750000
527 1 20.65000000 19.41628955 7.18750000
528 2 22.42000000 22.48201948 7.18750000
529 1 24.19000000 25.54774941 7.18750000
530 3 25.96000000 28.61347934 7.18750000
531 3 13.57000000 1.02190998 7.18750000
532 2 15.34000000 4.08763991 7.18750000
533 2 17.11000000 7.15336984 7.18750000
534 2 18.88000000 10.21909976 7.18750000
535 2 20.65000000 13.28482969 7.18750000
536 1 22.42000000 16.35055962 7.18750000
537 3 24.19000000 19.41628955 7.18750000
538 1 25.96000000 22.48201948 7.18750000
539 3 27.73000000 25.54774941 7.18750000
540 1 29.50000000 28.61347934 7.18750000
541 2 17.11000000 1.02190998 7.18750000
542 2 18.88000000 4.08763991 7.18750000
543 2 20.65000000 7.15336984 7.18750000
544 1 22.42000000 10.21909976 7.18750000
545 3 24.19000000 13.28482969 7.18750000
546 2 25.96000000 16.35055962 7.18750000
547 2 27.73000000 19.41628955 7.18750000
548 1 29.50000000 22.48201948 7.18750000
549 1 31.27000000 25.54774941 7.18750000
550 3 33.04000000 28.61347934 7.18750000
551 3 20.65000000 1.02190998 7.18750000
552 3 22.42000000 4.08763991 7.18750000
553 2 24.19000000 7.15336984 7.18750000
554 2 25.96000000 10.21909976 7.18750000
555 1 27.73000000 13.28482969 7.18750000
556 3 29.50000000 16.35055962 7.18750000
557 3 31.27000000 19.41628955 7.18750000
558 1 33.04000000 22.48201948 7.18750000
559 2 34.81000000 25.54774941 7.18750000
560 1 36.58000000 28.61347934 7.18750000
561 2 24.19000000 1.02190998 7.18750000
562 1 25.96000000 4.08763991 7.18750000
563 1 27.73000000 7.15336984 7.18750000
564 1 29.50000000 10.21909976 7.18750000
565 1 31.27000000 13.28482969 7.18750000
566 1 33.04000000 16.35055962 7.18750000
567 3 34.81000000 19.41628955 7.18750000
568 2 36.58000000 22.48201948 7.18750000
569 1 38.35000000 25.54774941 7.18750000
570 3 40.12000000 28.61347934 7.18750000
571 1 27.73000000 1.02190998 7.18750000
572 1 29.50000000 4.08763991 7.18750000
573 3 31.27000000 7.15336984 7.18750000
574 3 33.04000000 10.21909976 7.18750000
575 3 34.81000000 13.28482969 7.18750000
576 2 36.58000000 16.35055962 7.18750000
577 3 38.35000000 19.41628955 7.18750000
578 3 40.12000000 22.48201948 7.18750000
579 2 41.89000000 25.54774941 7.18750000
580 3 43.66000000 28.61347934 7.18750000
581 2 31.27000000 1.02190998 7.18750000
582 1 33.04000000 4.08763991 7.18750000
583 1 34.81000000 7.15336984 7.18750000
584 1 36.58000000 10.21909976 7.18750000
585 2 38.35000000 13.28482969 7.18750000
586 3 40.12000000 16.35055962 7.18750000
587 2 41.89000000 19.41628955 7.18750000
588 3 43.66000000 22.48201948 7.18750000
589 1 45.43000000 25.54774941 7.18750000
590 3 47.20000000 28.61347934 7.18750000
591 2 34.81000000 1.02190998 7.18750000
592 1 36.58000000 4.08763991 7.18750000
593 2 38.35000000 7.15336984 7.18750000
594 1 40.12000000 10.21909976 7.18750000
595 1 41.89000000 13.28482969 7.18750000
596 1 43.66000000 16.35055962 7.18750000
597 1 45.43000000 19.41628955 7.18750000
598 2 47.20000000 22.48201948 7.18750000
599 2 48.97000000 25.54774941 7.18750000
600 3 50.74000000 28.61347934 7.18750000
601 3 0.00000000 0.00000000 8.62500000
602 3 1.77000000 3.06572993 8.62500000
603 1 3.54000000 6.13145986 8.62500000
604 1 5.31000000 9.19718979 8.62500000
605 2 7.08000000 12.26291972 8.62500000
606 1 8.85000000 15.32864965 8.62500000
607 3 10.62000000 18.39437958 8.62500000
608 3 12.39000000 21.46010951 8.62500000
609 3 14.16000000 24.52583944 8.62500000
610 2 15.93000000 27.59156936 8.62500000
611 2 3.54000000 0.00000000 8.62500000
612 1 5.31000000 3.06572993 8.62500000
613 2 7.08000000 6.13145986 8.62500000
614 1 8.85000000 9.19718979 8.62500000
615 3 10.62000000 12.26291972 8.62500000
616 1 12.39000000 15.32864965 8.62500000
617 3 14.16000000 18.39437958 8.62500000
618 3 15.93000000 21.46010951 8.62500000
619 3 17.70000000 24.52583944 8.62500000
620 3 19.47000000 27.59156936 8.62500000
621 2 7.08000000 0.00000000 8.62500000
622 2 8.85000000 3.06572993 8.62500000
623 2 10.62000000 6.13145986 8.62500000
624 1 12.39000000 9.19718979 8.62500000
625 3 14.16000000 12.26291972 8.62500000
626 2 15.93000000 15.32864965 8.62500000
627 3 17.70000000 18.39437958 8.62500000
628 3 19.47000000 21.46010951 8.62500000
629 1 21.24000000 24.52583944 8.62500000
630 3 23.01000000 27.59156936 8.62500000
631 1 10.62000000 0.00000000 8.62500000
632 2 12.39000000 3.06572993 8.62500000
633 3 14.16000000 6.13145986 8.62500000
634 1 15.93000000 9.19718979 8.62500000
635 2 17.70000000 12.26291972 8.62500000
636 1 19.47000000 15.32864965 8.62500000
637 1 21.24000000 18.39437958 8.62500000
638 2 23.01000000 21.46010951 8.62500000
639 2 24.78000000 24.52583944 8.62500000
640 1 26.55000000 27.59156936 8.62500000
641 2 14.16000000 0.00000000 8.62500000
642 1 15.93000000 3.06572993 8.62500000
643 3 17.70000000 6.13145986 8.62500000
644 1 19.47000000 9.19718979 8.62500000
645 3 21.24000000 12.26291972 8.62500000
646 2 23.01000000 15.32864965 8.62500000
647 2 24.78000000 18.39437958 8.62500000
648 1 26.55000000 21.46010951 8.62500000
649 3 28.32000000 24.52583944 8.62500000
650 2 30.09000000 27.59156936 8.62500000
651 3 17.70000000 0.00000000 8.62500000
652 3 19.47000000 3.06572993 8.62500000
653 3 21.24000000 6.13145986 8.62500000
654 3 23.01000000 9.19718979 8.62500000
655 2 24.78000000 12.26291972 8.62500000
656 2 26.55000000 15.32864965 8.62500000
657 2 28.32000000 18.39437958 8.62500000
658 1 30.09000000 21.46010951 8.62500000
659 2 31.86000000 24.52583944 8.62500000
660 1 33.63000000 27.59156936 8.62500000
661 1 21.24000000 0.00000000 8.62500000
662 2 23.01000000 3.06572993 8.62500000
663 3 24.78000000 6.13145986 8.62500000
664 3 26.55000000 9.19718979 8.62500000
665 1 28.32000000 12.26291972 8.62500000
666 3 30.09000000 15.32864965 8.62500000
667 1 31.86000000 18.39437958 8.62500000
668 3 33.63000000 21.46010951 8.62500000
669 1 35.40000000 24.52583944 8.62500000
670 2 37.17000000 27.59156936 8.62500000
671 1 24.78000000 0.00000000 8.62500000
672 2 26.55000000 3.06572993 8.62500000
673 2 28.32000000 6.13145986 8.62500000
674 2 30.09000000 9.19718979 8.62500000
675 1 31.86000000 12.26291972 8.62500000
676 1 33.63000000 15.32864965 8.62500000
677 1 35.40000000 18.39437958 8.62500000
678 3 37.17000000 21.46010951 8.62500000
679 1 38.94000000 24.52583944 8.62500000
680 3 40.71000000 27.59156936 8.62500000
681 3 28.32000000 0.00000000 8.62500000
682 2 30.09000000 3.06572993 8.62500000
683 3 31.86000000 6.13145986 8.62500000
684 2 33.63000000 9.19718979 8.62500000
685 2 35.40000000 12.26291972 8.62500000
686 1 37.17000000 15.32864965 8.62500000
687 2 38.94000000 18.39437958 8.62500000
688 3 40.71000000 21.46010951 8.62500000
689 2 42.48000000 24.52583944 8.62500000
690 2 44.25000000 27.59156936 8.62500000
691 3 31.86000000 0.00000000 8.62500000
692 1 33.63000000 3.06572993 8.62500000
693 3 35.40000000 6.13145986 8.62500000
694 2 37.17000000 9.19718979 8.62500000
695 2 38.94000000 12.26291972 8.62500000
696 3 40.71000000 15.32864965 8.62500000
697 3 42.48000000 18.39437958 8.62500000
698 1 44.25000000 21.46010951 8.62500000
699 1 46.02000000 24.52583944 8.62500000
700 1 47.79000000 27.59156936 8.62500000
701 3 2.36000000 2.04381995 10.06250000
702 3 4.13000000 5.10954988 10.06250000
703 3 5.90000000 8.17527981 10.06250000
704 3 7.67000000 11.24100974 10.06250000
705 2 9.44000000 14.30673967 10.06250000
706 2 11.21000000 17.37246960 10.06250000
707 3 12.98000000 20.43819953 10.06250000
708 2 14.75000000 23.50392946 10.06250000
709 1 16.52000000 26.56965939 10.06250000
710 3 18.29000000 29.63538932 10.06250000
711 3 5.90000000 2.04381995 10.06250000
712 3 7.67000000 5.10954988 10.06250000
713 1 9.44000000 8.17527981 10.06250000
714 2 11.21000000 11.24100974 10.06250000
715 3 12.98000000 14.30673967 10.06250000
716 2 14.75000000 17.37246960 10.06250000
717 2 16.52000000 20.43819953 10.06250000
718 2 18.29000000 23.50392946 10.06250000
719 1 20.06000000 26.56965939 10.06250000
720 2 21.83000000 29.63538932 10.06250000
721 3 9.44000000 2.04381995 10.06250000
722 2 11.21000000 5.10954988 10.06250000
723 3 12.98000000 8.17527981 10.06250000
724 3 14.75000000 11.24100974 10.06250000
725 3 16.52000000 14.30673967 10.06250000
726 2 18.29000000 17.37246960 10.06250000
727 3 20.06000000 20.43819953 10.06250000
728 3 21.83000000 23.50392946 10.06250000
729 3 23.60000000 26.56965939 10.06250000
730 1 25.37000000 29.63538932 10.06250000
731 2 12.98000000 2.04381995 10.06250000
732 2 14.75000000 5.10954988 10.06250000
733 2 16.52000000 8.17527981 10.06250000
734 2 18.29000000 11.24100974 10.06250000
735 2 20.06000000 14.30673967 10.06250000
736 2 21.83000000 17.37246960 10.06250000